% Model:              trial.mph
% Version:            COMSOL 5.6.0.280
% Date:               Jun 7 2021, 17:17
% Dimension:          3
% Nodes:              2000
% Expressions:        1
% Description:        浓度
% Length unit:        nm
% X                       Y                        Z                        c (mol/m^3)
0                         0                        9.999999999999998        5.7318820421360169E18
0.30209                   -0.32975999999999994     9.989999999999998        5.7268896848578744E18
-0.6298799999999999       0.055279                 9.979999999999999        5.7226198597262991E18
0.61441                   0.47106                  9.969999999999999        5.745399319889025E18
-0.15568                  -0.88009                 9.96                     5.7050093128803369E18
-0.53619                  0.84291                  9.95                     5.7367700795474145E18
1.0566                    -0.28402999999999995     9.94                     5.7299346646794373E18
-1.0485                   -0.54453                 9.93                     5.6972877601572035E18
0.4331499999999999        1.1861                   9.92                     5.7517841609882153E18
0.51089                   -1.2377                  9.91                     5.6981415358387814E18
-1.278                    0.59806                  9.899899999999999        5.7152926774878116E18
1.4116999999999997        0.4428                   9.889899999999999        5.7317684593601485E18
-0.7746399999999999       -1.3367                  9.879899999999997        5.6761146013976146E18
-0.34517999999999993      1.5701                   9.869899999999998        5.7436575359013212E18
1.3644                    -0.95924                 9.859899999999998        5.7049512321322783E18
-1.7117                   -0.22181                 9.849899999999998        5.6849509356530319E18
1.1485                    1.3626999999999998       9.839899999999998        5.7470557500557947E18
0.075881                  -1.8349                  9.829899999999999        5.668392459741525E18
-1.3327                   1.3392                   9.8199                   5.7121925685150618E18
1.9384999999999997        -0.089637                9.8099                   5.6968734476368282E18
-1.5282                   -1.2752999999999999      9.7999                   5.6569650033872896E18
0.27191                   2.0209                   9.7899                   5.7479113815307069E18
1.1917                    -1.7127999999999999      9.7799                   5.6774914121649172E18
-2.0808999999999997       0.46813999999999995      9.7699                   5.6842463504821361E18
1.8898999999999997        1.083                    9.7599                   5.7106603969683036E18
-0.67553                  -2.1174999999999997      9.7499                   5.6417235108720599E18
-0.9504299999999999       2.0571                   9.7399                   5.7062597531463823E18
2.1296                    -0.89127                 9.7299                   5.6664570959333407E18
-2.2117                   -0.79549                 9.7199                   5.6497399040476078E18
1.1124999999999998        2.1167999999999996       9.7099                   5.7416991632031416E18
0.6198                    -2.3513                  9.699799999999998        5.6451774121383772E18
-2.0786                   1.3365                   9.689799999999998        5.6722722816246723E18
2.4739                    0.4251499999999999       9.679799999999998        5.6720935807670989E18
-1.5604                   -2.0147999999999997      9.6698                   5.6230068732616161E18
-0.21352                  2.5772                   9.6598                   5.7115112009884467E18
1.9255999999999998        -1.7813                  9.6498                   5.6451568523576637E18
-2.6595999999999997       0.012974999999999999     9.6398                   5.6495904532492063E18
1.9965999999999997        1.8112                   9.6298                   5.7010142852528691E18
-0.25204                  -2.7195                  9.6198                   5.6151713600138824E18
-1.6722999999999997       2.2034                   9.6098                   5.6660133152747182E18
2.7555                    -0.5012799999999998      9.5998                   5.637135052165418E18
-2.3992                   -1.5098                  9.5898                   5.6160944387893832E18
0.7581499999999999        2.7664                   9.5798                   5.7174347591911793E18
1.3247999999999998        -2.5815                  9.5698                   5.630206368917418E18
-2.7513999999999994       1.0199999999999998       9.5598                   5.6364991639894385E18
2.7478                    1.1185999999999998       9.5498                   5.6573789323952609E18
-1.2842999999999998       -2.7099                  9.5398                   5.5915078870054113E18
-0.8928499999999999       2.8959                   9.5298                   5.6713125562988104E18
2.6415                    -1.5480999999999998      9.5198                   5.6107801803332045E18
-3.0237                   -0.64931                 9.5098                   5.6162040870814761E18
1.8087                    2.5462                   9.4997                   5.688955871600511E18
0.39                      -3.1293                  9.4897                   5.5954836759992566E18
-2.4241999999999995       2.0633999999999997       9.4797                   5.6268431902563553E18
3.211                     0.1171                   9.4697                   5.6162540563146762E18
-2.3094999999999994       -2.2759                  9.4597                   5.5825890936547277E18
0.16705999999999996       3.2672                   9.4497                   5.687524675091457E18
2.1020999999999996        -2.5442                  9.4397                   5.5967067526082703E18
-3.2968                   0.45996                  9.4297                   5.6058867405427057E18
2.7649                    1.9037999999999997       9.4197                   5.6511052790740398E18
-0.7590199999999999       -3.2986999999999997      9.4097                   5.5664789032351846E18
-1.6822                   2.9691                   9.3997                   5.6296750147413023E18
3.2721                    -1.0614999999999999      9.3897                   5.5829641020017787E18
-3.1544999999999996       -1.4388                  9.3797                   5.5814583215363389E18
1.3646999999999998        3.2165999999999997       9.3697                   5.6600810202756547E18
1.1755                    -3.3188                  9.3597                   5.5823809706358292E18
-3.132                    1.6656                   9.3497                   5.5906383932549929E18
3.4599999999999995        0.8940099999999999       9.3397                   5.6036191399618949E18
-1.9615999999999998       -3.0182                  9.3297                   5.5504892334687693E18
-0.59663                  3.576                    9.3197                   5.6449547302110976E18
2.8757                    -2.2496                  9.3097                   5.5618159423620157E18
-3.6653999999999995       -0.28567                 9.2996                   5.5837831906971658E18
2.527                     2.7049999999999996       9.2896                   5.6352997700167813E18
-0.036358999999999995     -3.7264999999999997      9.2796                   5.5473734807536353E18
-2.5069999999999997       2.7907999999999995       9.2696                   5.5887303344894638E18
3.7582999999999998        -0.3668199999999999      9.2596                   5.5625467604620564E18
-3.0385999999999997       -2.2829                  9.2496                   5.5466883589524777E18
0.7029299999999999        3.7597                   9.2396                   5.6349460050904801E18
2.0339999999999994        -3.2674999999999996      9.2296                   5.5555031114626294E18
-3.7301                   1.0417999999999998       9.2196                   5.5589841238586327E18
3.4753999999999996        1.7621                   9.2096                   5.598791732965804E18
-1.3806                   -3.669                   9.1996                   5.5209796353795891E18
-1.469                    3.6596999999999995       9.1896                   5.6004522030284534E18
3.5761999999999996        -1.7162999999999997      9.1796                   5.5329092888787046E18
-3.8183999999999996       -1.1569                  9.1696                   5.5508533910136535E18
2.0458                    3.4521                   9.1596                   5.605518237229569E18
0.82801                   -3.9496                  9.1496                   5.5344896288110141E18
-3.2968999999999995       2.3662                   9.1396                   5.5504179120525076E18
4.0517                    0.48488999999999993      9.1296                   5.5504795122358026E18
-2.6745999999999994       -3.1113                  9.1196                   5.513144204921986E18
-0.13022                  4.123                    9.1096                   5.6183178614905897E18
2.8964                    -2.9679999999999995      9.0995                   5.5182925686719877E18
-4.1624                   0.23318999999999998      9.0895                   5.5332769123858207E18
3.2435999999999994        2.6535                   9.0795                   5.5874322010768435E18
-0.6024                   -4.169                   9.0695                   5.5009636569850839E18
-2.384                    3.4988                   9.0595                   5.5564790832106107E18
4.1421                    -0.97438                 9.0495                   5.5136259537328435E18
-3.7308999999999997       -2.0898                  9.0395                   5.5144241170509507E18
1.3459999999999999        4.0812                   9.0295                   5.580847296017877E18
1.7728999999999997        -3.9377                  9.0195                   5.5203864895762227E18
-3.9863                   1.7142                   9.0095                   5.5164091294924759E18
4.1168                    1.4354999999999998       8.9995                   5.5452121835839232E18
-2.0757                   -3.8574999999999995      8.9895                   5.4819070448011858E18
-1.0801999999999998       4.2664                   8.9795                   5.5774980566537155E18
3.6953999999999994        -2.4274                  8.9695                   5.486875230370942E18
-4.3845                   -0.7095599999999999      8.9595                   5.5176224320246047E18
2.7662                    3.5007                   8.9495                   5.5548270415597937E18
0.32643999999999995       -4.4698                  8.939499999999999        5.4871568610854124E18
-3.2744999999999997       3.0891                   8.929499999999999        5.5152651785237402E18
4.5209                    -0.066168                8.919499999999998        5.5011854269930967E18
-3.393                    -3.0181                  8.909499999999998        5.4790352997193769E18
0.46517                   4.5369                   8.8994                   5.5622470798555412E18
2.7332                    -3.6751999999999994      8.8894                   5.4799182245965517E18
-4.517                    0.86735                  8.8794                   5.4881222580568586E18
3.933                     2.4216999999999995       8.8694                   5.5451158166157302E18
-1.2694                   -4.4608                  8.8594                   5.4566357673467361E18
-2.0857                   4.163799999999999        8.8494                   5.5301733084740516E18
4.3683                    -1.6681                  8.8394                   5.4661660546124769E18
-4.3654                   -1.7275999999999998      8.8294                   5.4853336908194918E18
2.0601                    4.239599999999999        8.8194                   5.5303946589680916E18
1.3500999999999999        -4.5356                  8.8094                   5.4796395807582812E18
-4.0752                   2.442                    8.7994                   5.4781237025665413E18
4.6726                    0.9557899999999999       8.789399999999999        5.4943083872665682E18
-2.8106                   -3.8759                  8.779399999999999        5.4457851668494602E18
-0.54781                  4.774699999999999        8.769399999999997        5.552613404421419E18
3.6429999999999993        -3.1626                  8.759399999999998        5.4450483458573373E18
-4.8406                   -0.12925                 8.749399999999998        5.4674972637983959E18
3.495                     3.3776                   8.739399999999998        5.5086381819314975E18
-0.29663                  -4.8693                  8.729399999999998        5.4409990540699075E18
-3.0816999999999997       3.8047                   8.719399999999998        5.4849072413744251E18
4.86                      -0.7264599999999999      8.709399999999999        5.452359416340778E18
-4.089                    -2.7570999999999994      8.6993                   5.4479282625680927E18
1.1568                    4.8122                   8.6893                   5.5086882136605071E18
2.4061                    -4.3451                  8.6793                   5.4465814309769103E18
-4.725799999999999        1.5842                   8.6693                   5.4465704990989742E18
4.5706                    2.0311                   8.6593                   5.4931782146468229E18
-2.0050999999999997       -4.6009                  8.6493                   5.4156977255383972E18
-1.6349                   4.7633                   8.639299999999999        5.5090302550509742E18
4.4382                    -2.4161                  8.629299999999999        5.4204722423921357E18
-4.921199999999999        -1.2205                  8.619299999999999        5.4569848518436311E18
2.8136999999999994        4.2383                   8.609299999999998        5.4803088828374569E18
0.79081                   -5.0425                  8.599299999999998        5.4318990068876964E18
-4.0024                   3.1945                   8.589299999999998        5.4441769713071084E18
5.1258                    0.34922                  8.579299999999998        5.444413643504426E18
-3.5551999999999997       -3.732                   8.569299999999998        5.4124636803322429E18
0.10089999999999999       5.17                     8.559299999999999        5.4961768118337004E18
3.4287999999999994        -3.8926999999999996      8.549299999999999        5.4076584818981857E18
-5.174099999999999        0.55602                  8.539299999999999        5.4218048158522737E18
4.204                     3.0948                   8.5293                   5.4672681512702812E18
-1.0126                   -5.1378                  8.5193                   5.3965887459920783E18
-2.7323                   4.4863                   8.5093                   5.4600141275776133E18
5.0607                    -1.4669                  8.4992                   5.4045797203798139E18
-4.7369                   -2.344                   8.489199999999999        5.419677023394177E18
1.9153                    4.9431                   8.479199999999999        5.4583222675853281E18
1.9324999999999999        -4.9535                  8.469199999999999        5.4182231867308175E18
-4.7853                   2.3542                   8.459199999999997        5.4088219985857556E18
5.134                     1.5009                   8.449199999999998        5.4419668445953843E18
-2.7799                   -4.588199999999999       8.439199999999998        5.3799689954669957E18
-1.0525                   5.276399999999999        8.429199999999998        5.4921073749242532E18
4.3529                    -3.1889                  8.419199999999998        5.3769872641669888E18
-5.3793                   -0.5905999999999999      8.409199999999998        5.4062818852824023E18
3.5778                    4.0808                   8.399199999999999        5.4342536669338194E18
0.11873                   -5.441299999999999       8.389199999999999        5.3851625817217669E18
-3.7736999999999994       3.9430999999999994       8.3792                   5.4145984637817979E18
5.4615                    -0.35945                 8.3692                   5.3948877497892065E18
-4.2818                   -3.4337                  8.3592                   5.3819089592781394E18
0.8401999999999998        5.4392                   8.3492                   5.4419576000832471E18
3.0629999999999997        -4.5909                  8.3392                   5.3748841778591939E18
-5.3743                   1.3196999999999999       8.3292                   5.3801797239752376E18
4.8675                    2.6644                   8.3192                   5.4309735651070147E18
-1.7941999999999998       -5.266799999999999       8.3092                   5.3544428745473024E18
-2.2406999999999995       5.1091999999999995       8.299099999999997        5.4398994395403346E18
5.117                     -2.2598                  8.289099999999998        5.3584110955263437E18
-5.3136                   -1.7949                  8.279099999999998        5.3940715534187182E18
2.7128                    4.925699999999999        8.269099999999998        5.4105552394248643E18
1.3304                    -5.478799999999999       8.259099999999998        5.3805446115479173E18
-4.694                    3.1492999999999998       8.249099999999999        5.3751059316940155E18
5.602999999999999         0.8507199999999999       8.2391                   5.3911255522067036E18
-3.5658999999999996       -4.4233                  8.2291                   5.3468584538441923E18
-0.35945                  5.684799999999999        8.2191                   5.4353818867640617E18
4.1155                    -3.9589999999999996      8.2091                   5.3381781144227164E18
-5.723199999999999        0.13963                  8.1991                   5.3591825750010921E18
4.3252                    3.7724                   8.1891                   5.3927058271695954E18
-0.64264                  -5.7175                  8.1791                   5.3400331585251348E18
-3.3966                   4.661499999999999        8.1691                   5.3901128283247237E18
5.667199999999999         -1.1456                  8.1591                   5.3463249814808812E18
-4.964699999999999        -2.9906                  8.1491                   5.3540501194776801E18
1.6446999999999998        5.5723                   8.1391                   5.3907092374127626E18
2.5573999999999995        -5.232399999999999       8.1291                   5.3488448556643584E18
-5.4332                   2.1358                   8.1191                   5.3421399493922857E18
5.461899999999999         2.1002                   8.1091                   5.3927223093738312E18
-2.6149                   -5.2505                  8.098999999999998        5.315533297676628E18
-1.6222999999999999       5.6512                   8.089                    5.4238532715397396E18
5.0252                    -3.0783                  8.079                    5.3143199944906977E18
-5.7983                   -1.1271999999999998      8.069                    5.3488938983306015E18
3.5222                    4.7588                   8.059                    5.3637215851091313E18
0.61884                   -5.901699999999999       8.049                    5.3320397280983163E18
-4.452999999999999        3.9427                   8.039                    5.3455707066890691E18
5.9603                    0.10097                  8.029                    5.3405956418336993E18
-4.3365                   -4.1098                  8.019                    5.3164034894635684E18
0.42239999999999994       5.9731                   8.009                    5.379828969900887E18
3.7315999999999994        -4.7001                  7.998999999999999        5.3089062519078124E18
-5.9395999999999995       0.9471799999999999       7.988999999999999        5.3168131891640238E18
5.0306                    3.321                    7.978999999999999        5.3560276655991552E18
-1.4692999999999998       -5.859699999999999       7.968999999999999        5.2970516539697541E18
-2.8811                   5.3249                   7.959                    5.3704821900093624E18
5.733699999999999         -1.9844999999999997      7.949                    5.299266119672617E18
-5.5804                   -2.4149                  7.939                    5.3287625323995187E18
2.4889                    5.562099999999999        7.929                    5.34310223698944E18
1.926                     -5.794899999999999       7.918999999999999        5.3340734311221555E18
-5.3459                   2.9782999999999995       7.908999999999999        5.307995802942892E18
5.9662                    1.418                    7.8989                   5.3407738762317097E18
-3.4487                   -5.0864                  7.888899999999999        5.2822285049242573E18
-0.89471                  6.0928                   7.878899999999999        5.3791538645539881E18
4.785199999999999         -3.8962999999999997      7.868899999999999        5.2727163696109414E18
-6.1731                   -0.3600999999999999      7.858899999999999        5.2998800579939922E18
4.3175                    4.444499999999999        7.8488999999999995       5.3212401866208922E18
-0.18170999999999998      -6.206299999999999       7.838899999999999        5.2842274822408991E18
-4.0666                   4.7086                   7.828899999999999        5.3207257619339377E18
6.1917                    -0.72654                 7.818899999999999        5.2909558764271933E18
-5.0665                   -3.6539999999999995      7.8088999999999995       5.2885890158416701E18
1.2700999999999998        6.1289                   7.7989                   5.3271262114129367E18
3.2098                    -5.387999999999999       7.7889                   5.2924416578520474E18
-6.0182                   1.8082999999999998       7.7789                   5.277923954749611E18
5.670299999999999         2.7373                   7.7689                   5.3240170203586191E18
-2.3366                   -5.86                    7.758899999999999        5.2566900923303363E18
-2.2398                   5.9109                   7.748899999999999        5.3548582800128328E18
5.6552                    -2.851                   7.738899999999999        5.2542016273021235E18
-6.107599999999999        -1.7211                  7.728899999999999        5.2949049852555807E18
3.3474                    5.404999999999999        7.7189                   5.2967991790666179E18
1.1851                    -6.2585                  7.7089                   5.2820462904349778E18
-5.1111                   3.8215999999999997       7.698799999999999        5.2779397916773683E18
6.3622                    0.6357599999999999       7.688799999999999        5.289088207530711E18
-4.2698                   -4.7753                  7.678799999999999        5.2515411392593562E18
-0.077396                 6.417399999999999        7.668799999999999        5.3218713331840922E18
4.400099999999999         -4.688399999999999       7.658799999999999        5.2517946711218463E18
-6.4234                   0.48573999999999995      7.6488                   5.2563106719854694E18
5.073799999999999         3.9880999999999998       7.6388                   5.2835352879814144E18
-1.0492999999999997       -6.3797                  7.6288                   5.2397121644774195E18
-3.5421                   5.4228                   7.6188                   5.3010839300276204E18
6.2863                    -1.6089                  7.608799999999999        5.2427470111219773E18
-5.7324                   -3.0654999999999997      7.598799999999999        5.2633358519484692E18
2.16                      6.143599999999999        7.588799999999999        5.2779537717776753E18
2.5618                    -5.999899999999999       7.578799999999999        5.2780959535908055E18
-5.952499999999999        2.6984999999999997       7.5687999999999995       5.242859524583721E18
6.222899999999999         2.0346                   7.5588                   5.2905408104829112E18
-3.2198999999999995       -5.7139                  7.5488                   5.2193458001044306E18
-1.4879999999999998       6.399399999999999        7.5388                   5.3270453515442842E18
5.429399999999999         -3.7200999999999995      7.5288                   5.2077089640552673E18
-6.5277                   -0.9260599999999999      7.518799999999999        5.2436890619774669E18
4.195                     5.101                    7.5088                   5.2528407359052196E18
0.3530499999999999        -6.606399999999999       7.4986999999999995       5.2293874476836362E18
-4.7309                   4.6408                   7.4887                   5.2521092374177587E18
6.6345                    -0.22664                 7.4787                   5.2382183308962089E18
-5.0538                   -4.321799999999999       7.4687                   5.2234828128467517E18
0.8085299999999999        6.6116                   7.4587                   5.2673263031685386E18
3.8764                    -5.4305                  7.448699999999999        5.2354989550669752E18
-6.537499999999999        1.3881                   7.438699999999999        5.2161571653757174E18
5.7678                    3.3981                   7.428699999999999        5.2509070723483935E18
-1.9607999999999999       -6.412299999999999       7.418699999999999        5.1990007865631478E18
-2.8904                   6.0626999999999995       7.408699999999999        5.285472473527553E18
6.236799999999999         -2.5221999999999998      7.398699999999999        5.1964652094048922E18
-6.3128                   -2.357                   7.388699999999999        5.2405027096561715E18
3.0677999999999996        6.012                    7.378699999999999        5.232900237991294E18
1.8018999999999998        -6.5158                  7.368699999999999        5.241373811206399E18
-5.7392                   3.5932                   7.3587                   5.2118760255079752E18
6.6698                    1.2292999999999998       7.3487                   5.2400932251307848E18
-4.0943                   -5.420399999999999       7.3387                   5.1874614131145134E18
-0.64348                  6.7732                   7.3287                   5.2677884698754212E18
5.0577                    -4.5669                  7.3187                   5.1835371348159212E18
-6.825                    -0.049014999999999996    7.3087                   5.1986021446404393E18
5.0073                    4.6537                   7.2986                   5.2135913715197798E18
-0.5495699999999999       -6.8245                  7.288599999999999        5.180770378157823E18
-4.211199999999999        5.4118                   7.278599999999999        5.2320297633049037E18
6.771299999999999         -1.1477                  7.268599999999999        5.1886980036346808E18
-5.776999999999999        -3.7334                  7.2585999999999995       5.1980118065100452E18
1.7405999999999997        6.6654                   7.248599999999999        5.2162204277501972E18
3.2238999999999995        -6.0999                  7.238599999999999        5.2213778254317025E18
-6.507499999999999        2.3237                   7.228599999999999        5.17979510038323E18
6.3777                    2.6864                   7.2185999999999995       5.2205644009582111E18
-2.8924                   -6.2984                  7.2086                   5.1621703380147272E18
-2.1249                   6.607899999999999        7.1986                   5.2736160399833129E18
6.039399999999999         -3.4422999999999995      7.1886                   5.1458690005972992E18
-6.7886                   -1.5435999999999999      7.1786                   5.1908784892853002E18
3.9687999999999994        5.7323                   7.1686                   5.1874849112089856E18
0.94703                   -6.9178999999999995      7.1586                   5.1871776072664289E18
-5.3792                   4.467899999999999        7.1486                   5.1851120703738071E18
6.994699999999999         0.33958999999999995      7.1386                   5.1879160480809882E18
-4.9354                   -4.9825                  7.1286                   5.158915061487743E18
0.27402                   7.0179                   7.1186                   5.211152212560215E18
4.545                     -5.3675999999999995      7.1086                   5.1751508101120184E18
-6.9871                   0.88907                  7.098499999999999        5.1568583274806313E18
5.7609                    4.069999999999999        7.088499999999999        5.1794286139940833E18
-1.5008                   -6.9023                  7.078499999999999        5.1383275817309983E18
-3.5608                   6.112                    7.068499999999999        5.2160623373204756E18
6.763799999999999         -2.1044                  7.0584999999999996       5.1410345647899505E18
-6.4179                   -3.0213999999999994      7.0485                   5.1750116809811272E18
2.6952                    6.572299999999999        7.0385                   5.1691695497729085E18
2.4555                    -6.676099999999999       7.0285                   5.2033988235520113E18
-6.3290999999999995       3.2686                   7.0185                   5.1475041803978998E18