% Model:              trial.mph
% Version:            COMSOL 5.6.0.280
% Date:               Jun 7 2021, 17:19
% Dimension:          3
% Nodes:              2000
% Expressions:        1
% Description:        浓度
% Length unit:        nm
% X                       Y                        Z                        c (mol/m^3)
0                         0                        59.89999999999999        5.7628086017953792E18
1.8095                    -1.9752999999999998      59.84                    5.5497165979831327E18
-3.7729999999999997       0.33112                  59.78                    5.5826191883481129E18
3.6803                    2.8216                   59.72                    5.6692514010597284E18
-0.9324999999999999       -5.271799999999999       59.66                    5.5822008197434552E18
-3.2118                   5.049                    59.599999999999994       5.5739192180956488E18
6.3288                    -1.7012999999999998      59.53999999999999        5.4840059554233528E18
-6.2803                   -3.2617999999999996      59.48                    5.4830337905029673E18
2.5946                    7.104599999999999        59.42099999999999        5.5419393705582633E18
3.0602                    -7.4135                  59.36099999999999        5.5366034597225933E18
-7.6553                   3.5823999999999994       59.300999999999995       5.6586725240156938E18
8.4561                    2.6523999999999996       59.24099999999999        5.5647891281936036E18
-4.6401                   -8.0067                  59.18099999999999        5.5683976584358738E18
-2.0676                   9.4049                   59.120999999999995       5.5169140856327844E18
8.1729                    -5.7458                  59.06099999999999        5.553397669385087E18
-10.253                   -1.3286                  59.00099999999999        5.5865168483092808E18
6.8794                    8.1626                   58.940999999999995       5.4169942456204063E18
0.4545199999999999        -10.991                  58.88099999999999        5.5510828387290061E18
-7.9826                   8.0217                   58.82099999999999        5.4277036261905746E18
11.611999999999998        -0.5369299999999999      58.760999999999996       5.4795201015045755E18
-9.1542                   -7.639099999999999       58.701                   5.6166022174825329E18
1.6287                    12.105                   58.641                   5.4107860447345398E18
7.138299999999999         -10.26                   58.581999999999994       5.4856979557941207E18
-12.465                   2.8041                   58.52199999999999        5.4457580336513567E18
11.321                    6.487099999999999        58.461999999999996       5.4704474336972462E18
-4.0464                   -12.683999999999997      58.401999999999994       5.6210631999121234E18
-5.6931                   12.321999999999997       58.34199999999999        5.5128585818963128E18
12.756999999999998        -5.338699999999999       58.28199999999999        5.5536267021661983E18
-13.248                   -4.765                   58.221999999999994       5.4899920689571748E18
6.6640999999999995        12.679999999999998       58.16199999999999        5.4220089385669847E18
3.7125999999999997        -14.084                  58.10199999999999        5.5196319659143066E18
-12.451                   8.0058                   58.041999999999994       5.3509858706518098E18
14.818                    2.5467                   57.98199999999999        5.4253500168793641E18
-9.3467                   -12.069                  57.922                   5.5254249319406418E18
-1.279                    15.438                   57.862                   5.5101076928491479E18
11.533999999999999        -10.67                   57.802                   5.5758044503141396E18
-15.930999999999997       0.077718                 57.742999999999995       5.5163174817388646E18
11.958999999999998        10.848999999999998       57.68299999999999        5.4380168044772465E18
-1.5096999999999998       -16.289999999999996      57.62299999999999        5.4236367091157084E18
-10.016999999999998       13.198                   57.562999999999995       5.4660144896249846E18
16.505                    -3.0026                  57.50299999999999        5.4880262702662984E18
-14.371                   -9.0437                  57.44299999999999        5.5231120510364078E18
4.541299999999999         16.571                   57.382999999999996       5.5943635559407022E18
7.935499999999999         -15.463                  57.32299999999999        5.4313306338227282E18
-16.481                   6.11                     57.26299999999999        5.4739635153513206E18
16.459                    6.7004                   57.202999999999996       5.4196771331124224E18
-7.692699999999999        -16.231999999999996      57.143                   5.4000504127854172E18
-5.348099999999999        17.347                   57.083                   5.4589838016445942E18
15.823                    -9.272999999999998       57.023                   5.4864773734971863E18
-18.112                   -3.8893999999999997      56.963                   5.4695032509049139E18
10.833999999999998        15.252                   56.903999999999996       5.4854823229689313E18
2.3361                    -18.745                  56.843999999999994       5.3917886654637158E18
-14.520999999999999       12.359999999999998       56.78399999999999        5.3862531582998733E18
19.233999999999998        0.70141                  56.72399999999999        5.5260947711961324E18
-13.833999999999998       -13.633                  56.663999999999994       5.4578248656915773E18
1.0007                    19.571                   56.60399999999999        5.467113009262722E18
12.592                    -15.24                   56.54399999999999        5.5159484180813251E18
-19.748                   2.7552                   56.483999999999995       5.346598128242133E18
16.562                    11.404                   56.424                   5.4050124035444122E18
-4.5465                   -19.759                  56.364                   5.449320229775316E18
-10.075999999999999       17.784999999999997       56.304                   5.4948148837194353E18
19.6                      -6.358499999999999       56.244                   5.364638849858134E18
-18.896                   -8.6187                  56.184                   5.6268423398378701E18
8.174299999999999         19.267999999999997       56.124                   5.4590823559170028E18
7.041                     -19.88                   56.064                   5.4247802344407532E18
-18.761                   9.9771                   56.004999999999995       5.4741224611210854E18
20.724999999999998        5.355099999999999        55.94499999999999        5.4187890632759849E18
-11.75                    -18.079                  55.88499999999999        5.3615873733609923E18
-3.5738                   21.42                    55.824999999999996       5.4575938660196403E18
17.225                    -13.474999999999998      55.76499999999999        5.4789777568881019E18
-21.956                   -1.7112                  55.705                   5.3509222228464579E18
15.137                    16.203                   55.645                   5.4165962302591109E18
-0.21779                  -22.321999999999996      55.585                   5.4008532809860833E18
-15.017                   16.717                   55.525                   5.4237302329298227E18
22.512                    -2.1972                  55.465                   5.343355112780372E18
-18.201                   -13.674                  55.405                   5.3601171618904781E18
4.2105999999999995        22.521                   55.345                   5.4540902637615012E18
12.184                    -19.573                  55.285                   5.3972696181728297E18
-22.342999999999996       6.2406                   55.225                   5.3926962832546652E18
20.816999999999997        10.555                   55.16599999999999        5.2813725257740247E18
-8.2699                   -21.977                  55.105999999999995       5.3675465232128471E18
-8.7995                   21.921                   55.04599999999999        5.3364209194864128E18
21.422                    -10.28                   54.986                   5.3083043482459054E18
-22.872                   -6.9298                  54.925999999999995       5.3657158592046346E18
12.253999999999998        20.678                   54.866                   5.363244871010775E18
4.9598                    -23.658                  54.806                   5.3287918855879864E18
-19.748                   14.173999999999998       54.746                   5.4171000485610947E18
24.269                    2.9045                   54.686                   5.3089393394896374E18
-16.021                   -18.636999999999997      54.626                   5.3548536257632399E18
-0.78001                  24.696999999999996       54.566                   5.4104313483946947E18
17.35                     -17.777999999999995      54.506                   5.5113991498993244E18
-24.933                   1.3968                   54.446                   5.3743426053197722E18
19.428999999999995        15.893999999999998       54.386                   5.3544069252516383E18
-3.6083999999999996       -24.972                  54.32699999999999        5.3653692186512568E18
-14.279999999999998       20.957999999999995       54.266999999999996       5.4240800620851302E18
24.811                    -5.8365                  54.206999999999994       5.33477718264879E18
-22.347999999999995       -12.518                  54.147                   5.3544123700282542E18
8.062699999999998         24.445999999999998       54.087                   5.3754300499825388E18
10.62                     -23.587                  54.027                   5.3127828287808399E18
-23.877999999999997       10.268                   53.967                   5.3695904276596193E18
24.659999999999997        8.598799999999999        53.907                   5.389172604630827E18
-12.433                   -23.106999999999996      53.847                   5.3003133692871741E18
-6.4704                   25.556                   53.787                   5.3033325963039508E18
22.136                    -14.539999999999997      53.727                   5.3136035762892964E18
-26.263                   -4.2502                  53.667                   5.4811891149825905E18
16.57                     20.969                   53.607                   5.335536424901376E18
1.9553999999999998        -26.773999999999997      53.547                   5.2858385415260375E18
-19.614                   18.502999999999997       53.487                   5.3401385649347123E18
27.08                     -0.3963499999999999      53.428                   5.3226819643823432E18
-20.324                   -18.079                  53.368                   5.3242817187767695E18
2.7862999999999998        27.176                   53.308                   5.2966397560496261E18
16.371999999999996        -22.014                  53.248                   5.3969681716744243E18
-27.056999999999995       5.1954                   53.188                   5.3541379221674271E18
23.559                    14.505999999999998       53.128                   5.2944487401253038E18
-7.603999999999999        -26.72                   53.068                   5.2984799777826345E18
-12.494                   24.941                   53.008                   5.3796084548163738E18
26.165999999999997        -9.992199999999999       52.948                   5.2684908419954033E18
-26.148999999999997       -10.349                  52.888                   5.2797868325144125E18
12.339999999999998        25.394999999999996       52.828                   5.379546591696681E18
8.0869                    -27.168                  52.768                   5.3860924977508065E18
-24.41                    14.627999999999998       52.708                   5.3188735187720612E18
27.989                    5.725199999999999        52.648                   5.2606799782933801E18
-16.835                   -23.216999999999995      52.589                   5.3515121551312486E18
-3.2814                   28.6                     52.529                   5.2568078930203259E18
21.821                    -18.944                  52.469                   5.3476435118120489E18
-28.994999999999997       -0.7742099999999998      52.409                   5.37489324628369E18
20.934999999999995        20.232                   52.349                   5.4426450156178616E18
-1.7768                   -29.166999999999998      52.289                   5.3100405644371108E18
-18.458999999999996       22.79                    52.229                   5.3287817024271155E18
29.110999999999997        -4.3515                  52.169                   5.325057484517931E18
-24.492999999999995       -16.515                  52.109                   5.2758895206426993E18
6.929399999999999         28.825                   52.049                   5.2725716942450719E18
14.412                    -26.026999999999997      51.989                   5.2839435384394015E18
-28.306999999999995       9.489399999999998        51.929                   5.3859760129135421E18
27.378                    12.166                   51.869                   5.2580071127904625E18
-12.010999999999997       -27.559999999999995      51.80899999999999        5.2398740826139924E18
-9.7933                   28.531999999999996       51.75                    5.3205658091116349E18
26.585                    -14.473                  51.69                    5.2479269860104806E18
-29.478                   -7.3106                  51.63                    5.2261026814551839E18
16.854                    25.386999999999997       51.57                    5.2765231098582866E18
4.7369                    -30.204                  51.51                    5.397886454213289E18
-23.973999999999997       19.135                   51.45                    5.2553952433530757E18
30.703999999999997        2.0918                   51.39                    5.204165970936066E18
-21.296                   -22.354999999999997      51.33                    5.3108368873396716E18
0.60436                   30.968                   51.27                    5.2306683559555379E18
20.538                    -23.317                  51.21                    5.3675299942890967E18
-30.992999999999995       3.3305999999999996       51.15                    5.2911559068508754E18
25.182                    18.537999999999997       51.09                    5.2406875113408205E18
-6.065299999999999        -30.775                  51.03                    5.2479212920199823E18
-16.366999999999997       26.872999999999998       50.96999999999999        5.3515968191353068E18
30.314                    -8.786699999999998       50.911                   5.2571474421123062E18
-28.373999999999995       -14.04                   50.851                   5.2615861198416968E18
11.472999999999999        29.609                   50.791                   5.2447396834146836E18
11.575999999999999        -29.672                  50.731                   5.2400500962287596E18
-28.664                   14.102                   50.671                   5.2729754912526582E18
30.753                    8.9907                   50.611                   5.2449741118409544E18
-16.652                   -27.482999999999997      50.551                   5.3012876891601807E18
-6.304599999999999        31.606                   50.491                   5.2086622233680261E18
26.073999999999998        -19.102                  50.431                   5.2054815345499126E18
-32.222                   -3.5377                  50.371                   5.1966983473198141E18
21.431                    24.444                   50.311                   5.2924300074636329E18
0.71118                   -32.593                  50.25099999999999        5.319676958985474E18
-22.605                   23.619                   50.190999999999995       5.2192903772786995E18
32.71399999999999         -2.1531                  50.13099999999999        5.1846949757292564E18
-25.648                   -20.568                  50.07099999999999        5.264959064728279E18
5.0328                    32.581                   50.012                   5.1968529187680911E18
18.348                    -27.498999999999995      49.952                   5.232508925023572E18
-32.192                   7.9051                   49.892                   5.2689557684897065E18
29.155999999999995        15.96                    49.832                   5.1866772222639329E18
-10.746999999999998       -31.547999999999995      49.772                   5.1906191421880556E18
-13.421999999999999       30.603999999999996       49.712                   5.2463632895199242E18
30.650999999999996        -13.536                  49.652                   5.2086301402126561E18
-31.827999999999996       -10.750999999999998      49.592                   5.1797167153699103E18
16.248999999999995        29.505                   49.53199999999999        5.1934274458719795E18
7.9692                    -32.818                  49.471999999999994       5.2455363512838472E18
-28.117                   18.864                   49.41199999999999        5.1824552448951214E18
33.562                    5.095799999999999        49.35199999999999        5.1948386607162819E18
-21.36                    -26.496                  49.291999999999994       5.2382244802699244E18
-2.1531                   34.05199999999999        49.23199999999999        5.1922474915339459E18
24.651999999999997        -23.714                  49.173                   5.239726029090943E18
-34.28199999999999        0.8363599999999999       49.113                   5.1679708079250432E18
25.908                    22.597                   49.053                   5.1799281152090399E18
-3.8493999999999997       -34.24799999999999       48.993                   5.2857454453171436E18
-20.346                   27.922                   48.933                   5.2679604552970783E18
33.94599999999999         -6.8624                  48.873                   5.1444034865969981E18
-29.738999999999997       -17.914                  48.813                   5.2061959179113964E18
9.851599999999998         33.378                   48.75299999999999        5.1571112471931238E18
15.319                    -31.342                  48.69299999999999        5.1621512461978604E18
-32.545                   12.793                   48.632999999999996       5.2067035461945385E18
32.717                    12.58                    48.57299999999999        5.2234835584089006E18
-15.663999999999998       -31.449999999999996      48.51299999999999        5.1774816115378258E18
-9.7174                   33.85                    48.452999999999996       5.1391819815676457E18
30.100999999999996        -18.439                  48.392999999999994       5.1910116336762849E18
-34.732                   -6.7521                  48.334                   5.1397291809639547E18
21.098                    28.504999999999995       48.274                   5.261150402201684E18
3.7067999999999994        -35.351                  48.214                   5.1919390183841044E18
-26.674                   23.617                   48.154                   5.1397876229822341E18
35.70199999999999         0.60478                  48.094                   5.1605416933940193E18
-25.974999999999998       -24.617999999999995      48.034                   5.190348881402326E18
2.5301999999999993        35.779                   47.97399999999999        5.1392513927627295E18
22.351999999999997        -28.154                  47.913999999999994       5.1906694467000545E18
-35.577999999999996       5.6736                   47.85399999999999        5.1314670335849554E18
30.133                    19.893                   47.79399999999999        5.128506515344001E18
-8.8009                   -35.1                    47.733999999999995       5.2051602589875825E18
-17.258                   31.896                   47.67399999999999        5.195091277952386E18
34.345                    -11.886999999999999      47.61399999999999        5.1737064059060716E18
-33.42699999999999        -14.465                  47.553999999999995       5.1355966671727565E18
14.907999999999998        33.31699999999999        47.49399999999999        5.1387024277951754E18
11.536999999999999        -34.71099999999999       47.435                   5.1485395302554327E18
-32.022                   17.839999999999996       47.375                   5.14207353793421E18
35.73799999999999         8.4939                   47.315                   5.2564491583807283E18
-20.658                   -30.466999999999995      47.255                   5.1238796036527862E18
-5.3593                   36.496                   47.19499999999999        5.0971043248926239E18
28.664                    -23.339                  47.13499999999999        5.1064371425899305E18
-36.977                   -2.157                   47.074999999999996       5.1008627887124705E18
25.862                    26.623                   47.01499999999999        5.1033709714831278E18
-1.0884                   -37.175999999999995      46.95499999999999        5.1888256738195046E18
-24.359                   28.205                   46.894999999999996       5.1674231162904904E18
37.087999999999994        -4.352                   46.834999999999994       5.1382374000904397E18
-30.348                   -21.888                  46.77499999999999        5.1279722090289787E18
7.608199999999999         36.712                   46.714999999999996       5.1680191358028175E18
19.226999999999997        -32.274                  46.655                   5.076278274679724E18
-36.049                   10.830999999999998       46.596                   5.0892543457443584E18
33.965                    16.396                   46.536                   5.1311855270459433E18
-13.996                   -35.102                  46.47599999999999        5.0700663121202975E18
-13.415999999999999       35.406                   46.41599999999999        5.1015665737643837E18
33.875                    -17.077999999999996      46.355999999999995       5.1749373754087772E18
-36.584                   -10.309                  46.29599999999999        5.1281661362273659E18
20.050999999999995        32.376                   46.23599999999999        5.1372181208457738E18
7.098499999999999         -37.489                  46.175999999999995       5.0806163107799265E18
-30.614999999999995       22.891                   46.11599999999999        5.1137021554211697E18
38.11                     3.8082                   46.05599999999999        5.1838728074621901E18
-25.576                   -28.604                  45.995999999999995       5.2920285951723991E18
-0.46359999999999996      38.44                    45.93599999999999        5.0836231616021166E18
26.357                    -28.084                  45.876                   5.1575329620169196E18
-38.47599999999999        2.9096                   45.816                   5.0980305230062531E18
30.391999999999996        23.888999999999996       45.757                   5.0761935953965445E18
-6.2853                   -38.214                  45.697                   5.0571577890046167E18
-21.217                   32.483                   45.63699999999999        5.1933749083453706E18
37.654999999999994        -9.6371                  45.57699999999999        5.0456062081293742E18
-34.337                   -18.363                  45.516999999999996       5.1079186311154432E18
12.939                    36.8                     45.456999999999994       5.1874108566681149E18
15.345                    -35.94                   45.39699999999999        5.0809960793632911E18
-35.655                   16.164                   45.336999999999996       5.1003607062525788E18
37.275                    12.188                   45.276999999999994       5.1678945700060508E18
-19.286999999999995       -34.22599999999999       45.21699999999999        5.0460511785061622E18
-8.9133                   38.333                   45.157                   5.0769874398768374E18
32.52199999999999         -22.282999999999998      45.097                   5.0788154543993692E18
-39.101                   -5.5470999999999995      45.037                   5.0976256025040169E18
25.128                    30.555                   44.977                   5.0872430073478052E18
2.1147                    -39.572                  44.91799999999999        5.0702938213088348E18
-28.337999999999997       27.797999999999995       44.85799999999999        5.0395839068333281E18
39.741                    -1.3575999999999997      44.797999999999995       5.0583989151412849E18
-30.272                   -25.887                  44.73799999999999        5.0779326181642097E18
4.8431                    39.604                   44.67799999999999        5.0748017708396718E18
23.219999999999995        -32.529                  44.617999999999995       5.0368655337811825E18
-39.159                   8.3147                   44.55799999999999        5.1063285678110454E18
34.549                    20.355                   44.49799999999999        5.0434609610236396E18
-11.745                   -38.41                   44.437999999999995       5.0634502181603328E18
-17.313                   36.316                   44.378                   5.0738834007146373E18
37.35799999999999         -15.108                  44.318                   5.0313820205005107E18
-37.814                   -14.117999999999999      44.258                   5.0803243886938266E18
18.376                    36.012                   44.198                   5.0133562377113129E18
10.792999999999997        -39.03                   44.138                   5.023700573884842E18
-34.378                   21.522999999999996       44.078                   5.0794461472966298E18
39.95199999999999         7.363199999999999        44.01899999999999        5.0655827325415741E18
-24.524999999999995       -32.467999999999996      43.958999999999996       5.0720473094620129E18
-3.8543999999999996       40.572                   43.898999999999994       5.025643663451691E18
30.296                    -27.356                  43.83899999999999        5.0022718176016732E18
-40.882                   -0.2936                  43.778999999999996       5.1387599310258596E18
29.994                    27.876                   43.718999999999994       5.0417394462972723E18
-3.2918999999999996       -40.87899999999999       43.659                   4.9974648525368648E18
-25.224999999999998       32.417                   43.599                   5.138534437847212E18
40.56                     -6.8744                  43.539                   5.0127678015533885E18
-34.604                   -22.362999999999996      43.479                   5.048420105358038E18
10.425999999999998        39.925999999999995       43.419                   5.0271035964726405E18
19.310999999999996        -36.538                  43.359                   5.0008517094128292E18
-38.98                    13.919                   43.299                   4.9853540358539551E18
38.202                    16.091                   43.239                   5.0774805343592561E18
-17.326                   -37.72699999999999       43.17999999999999        5.0978938731129006E18
-12.727999999999998       39.582                   43.11999999999999        5.0141188559727012E18
36.176                    -20.619                  43.059999999999995       5.0598155032755036E18
-40.664                   -9.2464                  42.99999999999999        5.0394948304242964E18
23.772999999999996        34.337                   42.94                    4.9869628117354547E18
5.672699999999999         -41.437999999999995      42.88                    5.0359039193013617E18
-32.221                   26.762999999999998       42.82                    5.0215883018302525E18
41.898                    2.0341                   42.76                    4.9769509450464041E18
-29.563                   -29.844999999999995      42.7                     5.1342551843692001E18
1.6414                    42.037                   42.64                    4.9631119207542866E18
27.225                    -32.152                  42.58                    4.9976014025386394E18
-41.853                   5.3255                   42.52                    5.0495242804900567E18
34.508                    24.379                   42.46                    4.9518231132839025E18
-8.989799999999999        -41.345                  42.4                     4.9966181326524805E18
-21.329                   36.61099999999999        42.340999999999994       5.051423338934014E18
40.515                    -12.606                  42.28099999999999        5.0463509507952599E18
-38.443                   -18.098                  42.221                   5.0475350765879532E18
16.145                    39.368                   42.160999999999994       5.0011356792897659E18
14.709                    -39.989999999999995      42.101                   4.9991683124627569E18
-37.910999999999994       19.579                   42.041                   4.9356991447371817E18
41.237                    11.186999999999998       41.981                   4.9787623696237107E18