% Model:              trial.mph
% Version:            COMSOL 5.6.0.280
% Date:               Jun 7 2021, 17:19
% Dimension:          3
% Nodes:              2000
% Expressions:        1
% Description:        浓度
% Length unit:        nm
% X                       Y                        Z                        c (mol/m^3)
0                         0                        9.999999999999998        NaN
0.30209                   -0.32975999999999994     9.989999999999998        1.7049836534806383E22
-0.6298799999999999       0.055279                 9.979999999999999        1.2122710885801749E22
0.61441                   0.47106                  9.969999999999999        9.815489933100701E21
-0.15568                  -0.88009                 9.96                     8.490489578447569E21
-0.53619                  0.84291                  9.95                     7.634468501080441E21
1.0566                    -0.28402999999999995     9.94                     6.864588532288848E21
-1.0485                   -0.54453                 9.93                     6.380101032592363E21
0.4331499999999999        1.1861                   9.92                     5.963591470668428E21
0.51089                   -1.2377                  9.91                     5.674853670329593E21
-1.278                    0.59806                  9.899899999999999        5.337994970238475E21
1.4116999999999997        0.4428                   9.889899999999999        5.102386504284413E21
-0.7746399999999999       -1.3367                  9.879899999999997        4.873707872019135E21
-0.34517999999999993      1.5701                   9.869899999999998        4.6956109520679663E21
1.3644                    -0.95924                 9.859899999999998        4.4525688367836315E21
-1.7117                   -0.22181                 9.849899999999998        4.400103554280535E21
1.1485                    1.3626999999999998       9.839899999999998        4.2100525133765815E21
0.075881                  -1.8349                  9.829899999999999        4.0793367251908984E21
-1.3327                   1.3392                   9.8199                   3.971750388928369E21
1.9384999999999997        -0.089637                9.8099                   3.8723947512218486E21
-1.5282                   -1.2752999999999999      9.7999                   3.7265527994592343E21
0.27191                   2.0209                   9.7899                   3.6331845124268475E21
1.1917                    -1.7127999999999999      9.7799                   3.5366911406375845E21
-2.0808999999999997       0.46813999999999995      9.7699                   3.4990792531320064E21
1.8898999999999997        1.083                    9.7599                   3.4025354094708995E21
-0.67553                  -2.1174999999999997      9.7499                   3.337780186678202E21
-0.9504299999999999       2.0571                   9.7399                   3.317706557456432E21
2.1296                    -0.89127                 9.7299                   3.195815029646852E21
-2.2117                   -0.79549                 9.7199                   3.1747155700240687E21
1.1124999999999998        2.1167999999999996       9.7099                   3.065718331158957E21
0.6198                    -2.3513                  9.699799999999998        3.0230954115925813E21
-2.0786                   1.3365                   9.689799999999998        2.964154855675977E21
2.4739                    0.4251499999999999       9.679799999999998        2.9439725034465945E21
-1.5604                   -2.0147999999999997      9.6698                   2.875311568542408E21
-0.21352                  2.5772                   9.6598                   2.8666944775013846E21
1.9255999999999998        -1.7813                  9.6498                   2.796118644799311E21
-2.6595999999999997       0.012974999999999999     9.6398                   2.770230024674156E21
1.9965999999999997        1.8112                   9.6298                   2.7172765931257206E21
-0.25204                  -2.7195                  9.6198                   2.65842516813032E21
-1.6722999999999997       2.2034                   9.6098                   2.6443508973678017E21
2.7555                    -0.5012799999999998      9.5998                   2.602407143179905E21
-2.3992                   -1.5098                  9.5898                   2.5761688029637603E21
0.7581499999999999        2.7664                   9.5798                   2.573357250796718E21
1.3247999999999998        -2.5815                  9.5698                   2.502369024739375E21
-2.7513999999999994       1.0199999999999998       9.5598                   2.479532318348579E21
2.7478                    1.1185999999999998       9.5498                   2.4465424759402356E21
-1.2842999999999998       -2.7099                  9.5398                   2.423790709785785E21
-0.8928499999999999       2.8959                   9.5298                   2.3955940909209124E21
2.6415                    -1.5480999999999998      9.5198                   2.357251441386397E21
-3.0237                   -0.64931                 9.5098                   2.3385533104810072E21
1.8087                    2.5462                   9.4997                   2.3245403698334935E21
0.39                      -3.1293                  9.4897                   2.3046497687695183E21
-2.4241999999999995       2.0633999999999997       9.4797                   2.2723466125150155E21
3.211                     0.1171                   9.4697                   2.2596876075880617E21
-2.3094999999999994       -2.2759                  9.4597                   2.2173147216281162E21
0.16705999999999996       3.2672                   9.4497                   2.2228267328494426E21
2.1020999999999996        -2.5442                  9.4397                   2.1825418186243055E21
-3.2968                   0.45996                  9.4297                   2.1718321643526236E21
2.7649                    1.9037999999999997       9.4197                   2.1361319405926728E21
-0.7590199999999999       -3.2986999999999997      9.4097                   2.142500689842491E21
-1.6822                   2.9691                   9.3997                   2.0972819656613052E21
3.2721                    -1.0614999999999999      9.3897                   2.0813975040082478E21
-3.1544999999999996       -1.4388                  9.3797                   2.066580954852457E21
1.3646999999999998        3.2165999999999997       9.3697                   2.0477608130162598E21
1.1755                    -3.3188                  9.3597                   2.0317664933085609E21
-3.132                    1.6656                   9.3497                   2.049673979089695E21
3.4599999999999995        0.8940099999999999       9.3397                   2.0242611921097854E21
-1.9615999999999998       -3.0182                  9.3297                   2.019583460220065E21
-0.59663                  3.576                    9.3197                   1.9833135897071138E21
2.8757                    -2.2496                  9.3097                   1.9348217524216052E21
-3.6653999999999995       -0.28567                 9.2996                   1.9289880764900945E21
2.527                     2.7049999999999996       9.2896                   1.9260679361479888E21
-0.036358999999999995     -3.7264999999999997      9.2796                   1.8971596210812517E21
-2.5069999999999997       2.7907999999999995       9.2696                   1.8973581366218392E21
3.7582999999999998        -0.3668199999999999      9.2596                   1.8848328874593228E21
-3.0385999999999997       -2.2829                  9.2496                   1.8701863735973983E21
0.7029299999999999        3.7597                   9.2396                   1.846898452771569E21
2.0339999999999994        -3.2674999999999996      9.2296                   1.8409674697471505E21
-3.7301                   1.0417999999999998       9.2196                   1.8243396469602119E21
3.4753999999999996        1.7621                   9.2096                   1.8204928122957243E21
-1.3806                   -3.669                   9.1996                   1.82309979268773E21
-1.469                    3.6596999999999995       9.1896                   1.787798305025372E21
3.5761999999999996        -1.7162999999999997      9.1796                   1.7857418762174128E21
-3.8183999999999996       -1.1569                  9.1696                   1.7940350901292258E21
2.0458                    3.4521                   9.1596                   1.7646725941440823E21
0.82801                   -3.9496                  9.1496                   1.7628689466060696E21
-3.2968999999999995       2.3662                   9.1396                   1.755044199402212E21
4.0517                    0.48488999999999993      9.1296                   1.7207552448226483E21
-2.6745999999999994       -3.1113                  9.1196                   1.6970820942554304E21
-0.13022                  4.123                    9.1096                   1.7151071835443138E21
2.8964                    -2.9679999999999995      9.0995                   1.6941433877403E21
-4.1624                   0.23318999999999998      9.0895                   1.67759799280732E21
3.2435999999999994        2.6535                   9.0795                   1.6964471220403485E21
-0.6024                   -4.169                   9.0695                   1.678692425467743E21
-2.384                    3.4988                   9.0595                   1.6609959877217524E21
4.1421                    -0.97438                 9.0495                   1.6528494960729535E21
-3.7308999999999997       -2.0898                  9.0395                   1.6190829211943774E21
1.3459999999999999        4.0812                   9.0295                   1.6475120503384257E21
1.7728999999999997        -3.9377                  9.0195                   1.6152455905881371E21
-3.9863                   1.7142                   9.0095                   1.624457632223182E21
4.1168                    1.4354999999999998       8.9995                   1.6192475812877204E21
-2.0757                   -3.8574999999999995      8.9895                   1.6131804788547857E21
-1.0801999999999998       4.2664                   8.9795                   1.5803233143135907E21
3.6953999999999994        -2.4274                  8.9695                   1.5827784538274553E21
-4.3845                   -0.7095599999999999      8.9595                   1.5588961800715407E21
2.7662                    3.5007                   8.9495                   1.5678954041530827E21
0.32643999999999995       -4.4698                  8.939499999999999        1.5429652499017417E21
-3.2744999999999997       3.0891                   8.929499999999999        1.5610093935820087E21
4.5209                    -0.066168                8.919499999999998        1.5381209211424077E21
-3.393                    -3.0181                  8.909499999999998        1.5216758312956464E21
0.46517                   4.5369                   8.8994                   1.530029591762307E21
2.7332                    -3.6751999999999994      8.8894                   1.5243151714429305E21
-4.517                    0.86735                  8.8794                   1.504505262018648E21
3.933                     2.4216999999999995       8.8694                   1.4842311256772114E21
-1.2694                   -4.4608                  8.8594                   1.5002001010561898E21
-2.0857                   4.163799999999999        8.8494                   1.497242948618137E21
4.3683                    -1.6681                  8.8394                   1.477907772339621E21
-4.3654                   -1.7275999999999998      8.8294                   1.4737880082608064E21
2.0601                    4.239599999999999        8.8194                   1.470923796187596E21
1.3500999999999999        -4.5356                  8.8094                   1.4515298419729592E21
-4.0752                   2.442                    8.7994                   1.4793574969836728E21
4.6726                    0.9557899999999999       8.789399999999999        1.4412745389433364E21
-2.8106                   -3.8759                  8.779399999999999        1.4354502909935417E21
-0.54781                  4.774699999999999        8.769399999999997        1.4400764749951512E21
3.6429999999999993        -3.1626                  8.759399999999998        1.427226343700733E21
-4.8406                   -0.12925                 8.749399999999998        1.4331871470263688E21
3.495                     3.3776                   8.739399999999998        1.4083075589195435E21
-0.29663                  -4.8693                  8.729399999999998        1.4184444181304134E21
-3.0816999999999997       3.8047                   8.719399999999998        1.40027864197397E21
4.86                      -0.7264599999999999      8.709399999999999        1.3880992292651365E21
-4.089                    -2.7570999999999994      8.6993                   1.4000350843206416E21
1.1568                    4.8122                   8.6893                   1.3893288815898106E21
2.4061                    -4.3451                  8.6793                   1.3726083585091347E21
-4.725799999999999        1.5842                   8.6693                   1.3750903474941744E21
4.5706                    2.0311                   8.6593                   1.364864003028911E21
-2.0050999999999997       -4.6009                  8.6493                   1.3847231140267266E21
-1.6349                   4.7633                   8.639299999999999        1.362993693616141E21
4.4382                    -2.4161                  8.629299999999999        1.348991136216876E21
-4.921199999999999        -1.2205                  8.619299999999999        1.3587210343285268E21
2.8136999999999994        4.2383                   8.609299999999998        1.3309540668088621E21
0.79081                   -5.0425                  8.599299999999998        1.3419455147382575E21
-4.0024                   3.1945                   8.589299999999998        1.337210059902607E21
5.1258                    0.34922                  8.579299999999998        1.3226660876043574E21
-3.5551999999999997       -3.732                   8.569299999999998        1.3272016312149994E21
0.10089999999999999       5.17                     8.559299999999999        1.3193207726480362E21
3.4287999999999994        -3.8926999999999996      8.549299999999999        1.3016036335442573E21
-5.174099999999999        0.55602                  8.539299999999999        1.299298387609568E21
4.204                     3.0948                   8.5293                   1.293247968282885E21
-1.0126                   -5.1378                  8.5193                   1.303831163837646E21
-2.7323                   4.4863                   8.5093                   1.2929057711752555E21
5.0607                    -1.4669                  8.4992                   1.2886425951537133E21
-4.7369                   -2.344                   8.489199999999999        1.3072189651693648E21
1.9153                    4.9431                   8.479199999999999        1.274664235663956E21
1.9324999999999999        -4.9535                  8.469199999999999        1.2900076144509337E21
-4.7853                   2.3542                   8.459199999999997        1.2658720735847844E21
5.134                     1.5009                   8.449199999999998        1.2692455308674584E21
-2.7799                   -4.588199999999999       8.439199999999998        1.2673326228801142E21
-1.0525                   5.276399999999999        8.429199999999998        1.2525941733192082E21
4.3529                    -3.1889                  8.419199999999998        1.2526789220446356E21
-5.3793                   -0.5905999999999999      8.409199999999998        1.2572374775997268E21
3.5778                    4.0808                   8.399199999999999        1.2466568950489544E21
0.11873                   -5.441299999999999       8.389199999999999        1.2363300850565188E21
-3.7736999999999994       3.9430999999999994       8.3792                   1.250543390288221E21
5.4615                    -0.35945                 8.3692                   1.23280738285545E21
-4.2818                   -3.4337                  8.3592                   1.2243154861120993E21
0.8401999999999998        5.4392                   8.3492                   1.2132396543996883E21
3.0629999999999997        -4.5909                  8.3392                   1.23366826995896E21
-5.3743                   1.3196999999999999       8.3292                   1.2194044018831364E21
4.8675                    2.6644                   8.3192                   1.2219726215985564E21
-1.7941999999999998       -5.266799999999999       8.3092                   1.2087354061822189E21
-2.2406999999999995       5.1091999999999995       8.299099999999997        1.204547362344351E21
5.117                     -2.2598                  8.289099999999998        1.18966760412542E21
-5.3136                   -1.7949                  8.279099999999998        1.2045194747457957E21
2.7128                    4.925699999999999        8.269099999999998        1.2079760742751598E21
1.3304                    -5.478799999999999       8.259099999999998        1.1774369732743602E21
-4.694                    3.1492999999999998       8.249099999999999        1.1878967369461916E21
5.602999999999999         0.8507199999999999       8.2391                   1.1836105543289833E21
-3.5658999999999996       -4.4233                  8.2291                   1.1728721435599176E21
-0.35945                  5.684799999999999        8.2191                   1.1547744276748034E21
4.1155                    -3.9589999999999996      8.2091                   1.1681133142000184E21
-5.723199999999999        0.13963                  8.1991                   1.1545592304746624E21
4.3252                    3.7724                   8.1891                   1.1763079825646004E21
-0.64264                  -5.7175                  8.1791                   1.1599890299614216E21
-3.3966                   4.661499999999999        8.1691                   1.1681043063359802E21
5.667199999999999         -1.1456                  8.1591                   1.1408980979547135E21
-4.964699999999999        -2.9906                  8.1491                   1.1490907613982698E21
1.6446999999999998        5.5723                   8.1391                   1.1469441244167149E21
2.5573999999999995        -5.232399999999999       8.1291                   1.1496869905919159E21
-5.4332                   2.1358                   8.1191                   1.1457761616240561E21
5.461899999999999         2.1002                   8.1091                   1.1353103668043793E21
-2.6149                   -5.2505                  8.098999999999998        1.133460834376482E21
-1.6222999999999999       5.6512                   8.089                    1.1392393559933492E21
5.0252                    -3.0783                  8.079                    1.124286951339543E21
-5.7983                   -1.1271999999999998      8.069                    1.1151603969888471E21
3.5222                    4.7588                   8.059                    1.1303056638050404E21
0.61884                   -5.901699999999999       8.049                    1.1230819668908696E21
-4.452999999999999        3.9427                   8.039                    1.1133792215369824E21
5.9603                    0.10097                  8.029                    1.1087461997817139E21
-4.3365                   -4.1098                  8.019                    1.1010449010966109E21
0.42239999999999994       5.9731                   8.009                    1.1037034271768883E21
3.7315999999999994        -4.7001                  7.998999999999999        1.104249719192929E21
-5.9395999999999995       0.9471799999999999       7.988999999999999        1.09925348626472E21
5.0306                    3.321                    7.978999999999999        1.1006101737424557E21
-1.4692999999999998       -5.859699999999999       7.968999999999999        1.0963544848444218E21
-2.8811                   5.3249                   7.959                    1.0808682695385201E21
5.733699999999999         -1.9844999999999997      7.949                    1.0865204150423793E21
-5.5804                   -2.4149                  7.939                    1.0789013264138253E21
2.4889                    5.562099999999999        7.929                    1.0877626771537975E21
1.926                     -5.794899999999999       7.918999999999999        1.067047964027629E21
-5.3459                   2.9782999999999995       7.908999999999999        1.0691541859060236E21
5.9662                    1.418                    7.8989                   1.0661447202510954E21
-3.4487                   -5.0864                  7.888899999999999        1.0649909781333433E21
-0.89471                  6.0928                   7.878899999999999        1.051082725003623E21
4.785199999999999         -3.8962999999999997      7.868899999999999        1.0552999398101987E21
-6.1731                   -0.3600999999999999      7.858899999999999        1.0701838479723945E21
4.3175                    4.444499999999999        7.8488999999999995       1.0604706842336395E21
-0.18170999999999998      -6.206299999999999       7.838899999999999        1.0486702408700816E21
-4.0666                   4.7086                   7.828899999999999        1.037959418809605E21
6.1917                    -0.72654                 7.818899999999999        1.049817863710578E21
-5.0665                   -3.6539999999999995      7.8088999999999995       1.0329543907740941E21
1.2700999999999998        6.1289                   7.7989                   1.0476115709572442E21
3.2098                    -5.387999999999999       7.7889                   1.0484370664747692E21
-6.0182                   1.8082999999999998       7.7789                   1.0405925729004422E21
5.670299999999999         2.7373                   7.7689                   1.0273593106571177E21
-2.3366                   -5.86                    7.758899999999999        1.02596302806999E21
-2.2398                   5.9109                   7.748899999999999        1.0322437958622073E21
5.6552                    -2.851                   7.738899999999999        1.0216901229967264E21
-6.107599999999999        -1.7211                  7.728899999999999        1.0174078515752368E21
3.3474                    5.404999999999999        7.7189                   1.0146350193410069E21
1.1851                    -6.2585                  7.7089                   1.0118662390924196E21
-5.1111                   3.8215999999999997       7.698799999999999        1.0095230631281361E21
6.3622                    0.6357599999999999       7.688799999999999        1.018373390296487E21
-4.2698                   -4.7753                  7.678799999999999        1.0126981450214054E21
-0.077396                 6.417399999999999        7.668799999999999        1.0189321899168158E21
4.400099999999999         -4.688399999999999       7.658799999999999        9.948140555203685E20
-6.4234                   0.48573999999999995      7.6488                   1.0041715509348239E21
5.073799999999999         3.9880999999999998       7.6388                   1.0059567276251793E21
-1.0492999999999997       -6.3797                  7.6288                   9.980427224075728E20
-3.5421                   5.4228                   7.6188                   9.98317854393284E20
6.2863                    -1.6089                  7.608799999999999        9.968469631362027E20
-5.7324                   -3.0654999999999997      7.598799999999999        9.970110566702779E20
2.16                      6.143599999999999        7.588799999999999        1.0094921782474378E21
2.5618                    -5.999899999999999       7.578799999999999        9.975590723889035E20
-5.952499999999999        2.6984999999999997       7.5687999999999995       9.824158610775579E20
6.222899999999999         2.0346                   7.5588                   9.731051710311613E20
-3.2198999999999995       -5.7139                  7.5488                   9.891454326737551E20
-1.4879999999999998       6.399399999999999        7.5388                   9.779947032675746E20
5.429399999999999         -3.7200999999999995      7.5288                   9.908345650018746E20
-6.5277                   -0.9260599999999999      7.518799999999999        9.725623092183939E20
4.195                     5.101                    7.5088                   9.787818221206887E20
0.3530499999999999        -6.606399999999999       7.4986999999999995       9.639403800703488E20
-4.7309                   4.6408                   7.4887                   9.586612579233004E20
6.6345                    -0.22664                 7.4787                   9.697280606005917E20
-5.0538                   -4.321799999999999       7.4687                   9.608225516673242E20
0.8085299999999999        6.6116                   7.4587                   9.605201239675112E20
3.8764                    -5.4305                  7.448699999999999        9.532651657939035E20
-6.537499999999999        1.3881                   7.438699999999999        9.518167413487855E20
5.7678                    3.3981                   7.428699999999999        9.538286908233102E20
-1.9607999999999999       -6.412299999999999       7.418699999999999        9.497765491715924E20
-2.8904                   6.0626999999999995       7.408699999999999        9.55535220657713E20
6.236799999999999         -2.5221999999999998      7.398699999999999        9.430034294134022E20
-6.3128                   -2.357                   7.388699999999999        9.509985186698431E20
3.0677999999999996        6.012                    7.378699999999999        9.323518654051592E20
1.8018999999999998        -6.5158                  7.368699999999999        9.464903330535233E20
-5.7392                   3.5932                   7.3587                   9.40336890034236E20
6.6698                    1.2292999999999998       7.3487                   9.4488965895969E20
-4.0943                   -5.420399999999999       7.3387                   9.45396111149374E20
-0.64348                  6.7732                   7.3287                   9.387209422604096E20
5.0577                    -4.5669                  7.3187                   9.31707497461129E20
-6.825                    -0.049014999999999996    7.3087                   9.216641440649902E20
5.0073                    4.6537                   7.2986                   9.239479123748585E20
-0.5495699999999999       -6.8245                  7.288599999999999        9.313319549267136E20
-4.211199999999999        5.4118                   7.278599999999999        9.198965323304906E20
6.771299999999999         -1.1477                  7.268599999999999        9.216350365099828E20
-5.776999999999999        -3.7334                  7.2585999999999995       9.230161397976422E20
1.7405999999999997        6.6654                   7.248599999999999        9.138285391356673E20
3.2238999999999995        -6.0999                  7.238599999999999        9.122434206224123E20
-6.507499999999999        2.3237                   7.228599999999999        9.081743342771511E20
6.3777                    2.6864                   7.2185999999999995       9.087660496899594E20
-2.8924                   -6.2984                  7.2086                   9.070441817048226E20
-2.1249                   6.607899999999999        7.1986                   9.09047815833515E20
6.039399999999999         -3.4422999999999995      7.1886                   9.11854559183508E20
-6.7886                   -1.5435999999999999      7.1786                   8.987155857314784E20
3.9687999999999994        5.7323                   7.1686                   8.99388563430517E20
0.94703                   -6.9178999999999995      7.1586                   9.04159533583535E20
-5.3792                   4.467899999999999        7.1486                   8.952290058040934E20
6.994699999999999         0.33958999999999995      7.1386                   8.989561961192008E20
-4.9354                   -4.9825                  7.1286                   9.157370741630068E20
0.27402                   7.0179                   7.1186                   8.823987767970521E20
4.545                     -5.3675999999999995      7.1086                   8.971362962501969E20
-6.9871                   0.88907                  7.098499999999999        8.92741535066794E20
5.7609                    4.069999999999999        7.088499999999999        8.967733150730441E20
-1.5008                   -6.9023                  7.078499999999999        8.906873430982939E20
-3.5608                   6.112                    7.068499999999999        8.85013216594959E20
6.763799999999999         -2.1044                  7.0584999999999996       8.775418962354876E20
-6.4179                   -3.0213999999999994      7.0485                   8.90033539519477E20
2.6952                    6.572299999999999        7.0385                   8.8227313931754E20
2.4555                    -6.676099999999999       7.0285                   8.831804233463021E20
-6.3290999999999995       3.2686                   7.0185                   8.685026662018014E20
6.8842                    1.8676                   7.0085                   8.682486400813884E20
-3.8198999999999996       -6.0357                  6.9985                   8.828967029924371E20