% Model:              trial.mph
% Version:            COMSOL 5.6.0.280
% Date:               Jun 7 2021, 17:17
% Dimension:          3
% Nodes:              2000
% Expressions:        1
% Description:        浓度
% Length unit:        nm
% X                       Y                        Z                        c (mol/m^3)
0                         0                        59.89999999999999        NaN
1.8095                    -1.9752999999999998      59.84                    1.82006480546907E20
-3.7729999999999997       0.33112                  59.78                    1.225953450948525E20
3.6803                    2.8216                   59.72                    9.7504952286458E19
-0.9324999999999999       -5.271799999999999       59.66                    8.277844636230395E19
-3.2118                   5.049                    59.599999999999994       7.297508336749725E19
6.3288                    -1.7012999999999998      59.53999999999999        6.572957065344134E19
-6.2803                   -3.2617999999999996      59.48                    6.01655533185291E19
2.5946                    7.104599999999999        59.42099999999999        5.570161174988744E19
3.0602                    -7.4135                  59.36099999999999        5.205726723016871E19
-7.6553                   3.5823999999999994       59.300999999999995       4.89731087056934E19
8.4561                    2.6523999999999996       59.24099999999999        4.627698886548438E19
-4.6401                   -8.0067                  59.18099999999999        4.39893693059257E19
-2.0676                   9.4049                   59.120999999999995       4.199167010621542E19
8.1729                    -5.7458                  59.06099999999999        4.0152596022211854E19
-10.253                   -1.3286                  59.00099999999999        3.856392459385799E19
6.8794                    8.1626                   58.940999999999995       3.710986405801712E19
0.4545199999999999        -10.991                  58.88099999999999        3.576261289967514E19
-7.9826                   8.0217                   58.82099999999999        3.4604112345100337E19
11.611999999999998        -0.5369299999999999      58.760999999999996       3.3470381680005014E19
-9.1542                   -7.639099999999999       58.701                   3.247497229036608E19
1.6287                    12.105                   58.641                   3.150992248710582E19
7.138299999999999         -10.26                   58.581999999999994       3.064082914463221E19
-12.465                   2.8041                   58.52199999999999        2.9848071254838694E19
11.321                    6.487099999999999        58.461999999999996       2.9074543295644647E19
-4.0464                   -12.683999999999997      58.401999999999994       2.835142390942022E19
-5.6931                   12.321999999999997       58.34199999999999        2.7692808511134605E19
12.756999999999998        -5.338699999999999       58.28199999999999        2.7065749167862776E19
-13.248                   -4.765                   58.221999999999994       2.647077585271374E19
6.6640999999999995        12.679999999999998       58.16199999999999        2.5905438141794742E19
3.7125999999999997        -14.084                  58.10199999999999        2.536158158202758E19
-12.451                   8.0058                   58.041999999999994       2.487290909857624E19
14.818                    2.5467                   57.98199999999999        2.4377125092011385E19
-9.3467                   -12.069                  57.922                   2.392904117307818E19
-1.279                    15.438                   57.862                   2.349325196052417E19
11.533999999999999        -10.67                   57.802                   2.305283888454828E19
-15.930999999999997       0.077718                 57.742999999999995       2.2670379506855682E19
11.958999999999998        10.848999999999998       57.68299999999999        2.2280665451677557E19
-1.5096999999999998       -16.289999999999996      57.62299999999999        2.1919878503620526E19
-10.016999999999998       13.198                   57.562999999999995       2.1570022149912318E19
16.505                    -3.0026                  57.50299999999999        2.1216572074779763E19
-14.371                   -9.0437                  57.44299999999999        2.0915736031571714E19
4.541299999999999         16.571                   57.382999999999996       2.0584871519667528E19
7.935499999999999         -15.463                  57.32299999999999        2.0273719782036267E19
-16.481                   6.11                     57.26299999999999        1.999077133488079E19
16.459                    6.7004                   57.202999999999996       1.9710650970380222E19
-7.692699999999999        -16.231999999999996      57.143                   1.943541500725028E19
-5.348099999999999        17.347                   57.083                   1.916946678308315E19
15.823                    -9.272999999999998       57.023                   1.8913573223980667E19
-18.112                   -3.8893999999999997      56.963                   1.8675398908196397E19
10.833999999999998        15.252                   56.903999999999996       1.843833431340993E19
2.3361                    -18.745                  56.843999999999994       1.8198652808235643E19
-14.520999999999999       12.359999999999998       56.78399999999999        1.798477772196212E19
19.233999999999998        0.70141                  56.72399999999999        1.7762897382603817E19
-13.833999999999998       -13.633                  56.663999999999994       1.755102177196616E19
1.0007                    19.571                   56.60399999999999        1.735312571643909E19
12.592                    -15.24                   56.54399999999999        1.7138129579001723E19
-19.748                   2.7552                   56.483999999999995       1.6962595547916366E19
16.562                    11.404                   56.424                   1.6773230109787E19
-4.5465                   -19.759                  56.364                   1.6584887570111408E19
-10.075999999999999       17.784999999999997       56.304                   1.6412144732360602E19
19.6                      -6.358499999999999       56.244                   1.6230153965472264E19
-18.896                   -8.6187                  56.184                   1.607178403298234E19
8.174299999999999         19.267999999999997       56.124                   1.5903137693463489E19
7.041                     -19.88                   56.064                   1.573228898807069E19
-18.761                   9.9771                   56.004999999999995       1.5583120111545418E19
20.724999999999998        5.355099999999999        55.94499999999999        1.5425838637804294E19
-11.75                    -18.079                  55.88499999999999        1.5275520878621657E19
-3.5738                   21.42                    55.824999999999996       1.5127615460756402E19
17.225                    -13.474999999999998      55.76499999999999        1.4979904323084222E19
-21.956                   -1.7112                  55.705                   1.4856564447106314E19
15.137                    16.203                   55.645                   1.472221242531204E19
-0.21779                  -22.321999999999996      55.585                   1.4579086460338274E19
-15.017                   16.717                   55.525                   1.4441120680411693E19
22.512                    -2.1972                  55.465                   1.4312025166279574E19
-18.201                   -13.674                  55.405                   1.419809860932423E19
4.2105999999999995        22.521                   55.345                   1.4081721067683922E19
12.184                    -19.573                  55.285                   1.3939726208988631E19
-22.342999999999996       6.2406                   55.225                   1.3855983366558874E19
20.816999999999997        10.555                   55.16599999999999        1.371918817938371E19
-8.2699                   -21.977                  55.105999999999995       1.3605679786794832E19
-8.7995                   21.921                   55.04599999999999        1.3492882597265392E19
21.422                    -10.28                   54.986                   1.3384071479339407E19
-22.872                   -6.9298                  54.925999999999995       1.328237106042129E19
12.253999999999998        20.678                   54.866                   1.3179933999235385E19
4.9598                    -23.658                  54.806                   1.3066787677987365E19
-19.748                   14.173999999999998       54.746                   1.2975716930026543E19
24.269                    2.9045                   54.686                   1.2873615956610966E19
-16.021                   -18.636999999999997      54.626                   1.2778836367554546E19
-0.78001                  24.696999999999996       54.566                   1.2678755529653457E19
17.35                     -17.777999999999995      54.506                   1.2582408665264105E19
-24.933                   1.3968                   54.446                   1.250214164450531E19
19.428999999999995        15.893999999999998       54.386                   1.2400774727271537E19
-3.6083999999999996       -24.972                  54.32699999999999        1.2318283967457376E19
-14.279999999999998       20.957999999999995       54.266999999999996       1.2221387290720188E19
24.811                    -5.8365                  54.206999999999994       1.2139854716261388E19
-22.347999999999995       -12.518                  54.147                   1.2065615237508256E19
8.062699999999998         24.445999999999998       54.087                   1.1976582355160932E19
10.62                     -23.587                  54.027                   1.1896847724163772E19
-23.877999999999997       10.268                   53.967                   1.1818364521182409E19
24.659999999999997        8.598799999999999        53.907                   1.1738847583478972E19
-12.433                   -23.106999999999996      53.847                   1.165760286721353E19
-6.4704                   25.556                   53.787                   1.1575512108157342E19
22.136                    -14.539999999999997      53.727                   1.1498629765486119E19
-26.263                   -4.2502                  53.667                   1.1432610447315767E19
16.57                     20.969                   53.607                   1.1359559544860522E19
1.9553999999999998        -26.773999999999997      53.547                   1.1278672365399974E19
-19.614                   18.502999999999997       53.487                   1.121546928669116E19
27.08                     -0.3963499999999999      53.428                   1.1139932865329404E19
-20.324                   -18.079                  53.368                   1.1072850429430342E19
2.7862999999999998        27.176                   53.308                   1.1001076763050875E19
16.371999999999996        -22.014                  53.248                   1.0934829725257648E19
-27.056999999999995       5.1954                   53.188                   1.0875730571626844E19
23.559                    14.505999999999998       53.128                   1.081052293926475E19
-7.603999999999999        -26.72                   53.068                   1.0750364706157292E19
-12.494                   24.941                   53.008                   1.0679885970840207E19
26.165999999999997        -9.992199999999999       52.948                   1.0617241920110969E19
-26.148999999999997       -10.349                  52.888                   1.0563652893646576E19
12.339999999999998        25.394999999999996       52.828                   1.0493442881683253E19
8.0869                    -27.168                  52.768                   1.0436016865561854E19
-24.41                    14.627999999999998       52.708                   1.0382517123157412E19
27.989                    5.725199999999999        52.648                   1.0317875402487237E19
-16.835                   -23.216999999999995      52.589                   1.02637652434049E19
-3.2814                   28.6                     52.529                   1.0202151491071257E19
21.821                    -18.944                  52.469                   1.0150616296395657E19
-28.994999999999997       -0.7742099999999998      52.409                   1.0094460974062993E19
20.934999999999995        20.232                   52.349                   1.0042878956013455E19
-1.7768                   -29.166999999999998      52.289                   9.980225440302565E18
-18.458999999999996       22.79                    52.229                   9.92679374870424E18
29.110999999999997        -4.3515                  52.169                   9.879953015406655E18
-24.492999999999995       -16.515                  52.109                   9.824100297847247E18
6.929399999999999         28.825                   52.049                   9.784266009298495E18
14.412                    -26.026999999999997      51.989                   9.718545880531167E18
-28.306999999999995       9.489399999999998        51.929                   9.67675964720853E18
27.378                    12.166                   51.869                   9.622878943163558E18
-12.010999999999997       -27.559999999999995      51.80899999999999        9.572342811313166E18
-9.7933                   28.531999999999996       51.75                    9.529608990001504E18
26.585                    -14.473                  51.69                    9.481261114390477E18
-29.478                   -7.3106                  51.63                    9.436051899179258E18
16.854                    25.386999999999997       51.57                    9.381875224154317E18
4.7369                    -30.204                  51.51                    9.34248152492063E18
-23.973999999999997       19.135                   51.45                    9.290201485545556E18
30.703999999999997        2.0918                   51.39                    9.249455622475612E18
-21.296                   -22.354999999999997      51.33                    9.2029605754007419E18
0.60436                   30.968                   51.27                    9.1582499105062605E18
20.538                    -23.317                  51.21                    9.1160941967748362E18
-30.992999999999995       3.3305999999999996       51.15                    9.0744900501478871E18
25.182                    18.537999999999997       51.09                    9.03270711334848E18
-6.065299999999999        -30.775                  51.03                    8.9872541945770066E18
-16.366999999999997       26.872999999999998       50.96999999999999        8.9486185821517117E18
30.314                    -8.786699999999998       50.911                   8.9037399438731807E18
-28.373999999999995       -14.04                   50.851                   8.8654029037751091E18
11.472999999999999        29.609                   50.791                   8.8232405655966515E18
11.575999999999999        -29.672                  50.731                   8.7823309002767862E18
-28.664                   14.102                   50.671                   8.7440432089815204E18
30.753                    8.9907                   50.611                   8.706139692364628E18
-16.652                   -27.482999999999997      50.551                   8.670071084057726E18
-6.304599999999999        31.606                   50.491                   8.6311592487959491E18
26.073999999999998        -19.102                  50.431                   8.5905170084928543E18
-32.222                   -3.5377                  50.371                   8.551105097478274E18
21.431                    24.444                   50.311                   8.5120330619021896E18
0.71118                   -32.593                  50.25099999999999        8.4782727866341786E18
-22.605                   23.619                   50.190999999999995       8.4365472776103639E18
32.71399999999999         -2.1531                  50.13099999999999        8.4040395406412022E18
-25.648                   -20.568                  50.07099999999999        8.3685222312412293E18
5.0328                    32.581                   50.012                   8.3364570402871276E18
18.348                    -27.498999999999995      49.952                   8.2980083418115492E18
-32.192                   7.9051                   49.892                   8.269540679308885E18
29.155999999999995        15.96                    49.832                   8.2302120394191718E18
-10.746999999999998       -31.547999999999995      49.772                   8.1929496096704164E18
-13.421999999999999       30.603999999999996       49.712                   8.1614519979216005E18
30.650999999999996        -13.536                  49.652                   8.1220764847620987E18
-31.827999999999996       -10.750999999999998      49.592                   8.0951518733404406E18
16.248999999999995        29.505                   49.53199999999999        8.0596393628177746E18
7.9692                    -32.818                  49.471999999999994       8.0316503696484577E18
-28.117                   18.864                   49.41199999999999        8.0016590715645829E18
33.562                    5.095799999999999        49.35199999999999        7.9634910100708485E18
-21.36                    -26.496                  49.291999999999994       7.932339835435774E18
-2.1531                   34.05199999999999        49.23199999999999        7.9017649079585997E18
24.651999999999997        -23.714                  49.173                   7.870766081841194E18
-34.28199999999999        0.8363599999999999       49.113                   7.8453953710305751E18
25.908                    22.597                   49.053                   7.8073182784334162E18
-3.8493999999999997       -34.24799999999999       48.993                   7.7771609221976433E18
-20.346                   27.922                   48.933                   7.7480771996877681E18
33.94599999999999         -6.8624                  48.873                   7.7211371427621376E18
-29.738999999999997       -17.914                  48.813                   7.6917859573913078E18
9.851599999999998         33.378                   48.75299999999999        7.6659358490964337E18
15.319                    -31.342                  48.69299999999999        7.6298083487453665E18
-32.545                   12.793                   48.632999999999996       7.6069585426856038E18
32.717                    12.58                    48.57299999999999        7.5707652954904433E18
-15.663999999999998       -31.449999999999996      48.51299999999999        7.54517549802163E18
-9.7174                   33.85                    48.452999999999996       7.5218820396336865E18
30.100999999999996        -18.439                  48.392999999999994       7.4904628943535636E18
-34.732                   -6.7521                  48.334                   7.4722126108797348E18
21.098                    28.504999999999995       48.274                   7.4382418838108549E18
3.7067999999999994        -35.351                  48.214                   7.408343988264193E18
-26.674                   23.617                   48.154                   7.3814710593655429E18
35.70199999999999         0.60478                  48.094                   7.352451215967404E18
-25.974999999999998       -24.617999999999995      48.034                   7.3316820702851338E18
2.5301999999999993        35.779                   47.97399999999999        7.3024744591886705E18
22.351999999999997        -28.154                  47.913999999999994       7.2702643388604058E18
-35.577999999999996       5.6736                   47.85399999999999        7.2534110320815872E18
30.133                    19.893                   47.79399999999999        7.2246061435188029E18
-8.8009                   -35.1                    47.733999999999995       7.2045140023479183E18
-17.258                   31.896                   47.67399999999999        7.1732361129480643E18
34.345                    -11.886999999999999      47.61399999999999        7.1501634396141967E18
-33.42699999999999        -14.465                  47.553999999999995       7.1243929178919199E18
14.907999999999998        33.31699999999999        47.49399999999999        7.0961885232353167E18
11.536999999999999        -34.71099999999999       47.435                   7.0733284530734152E18
-32.022                   17.839999999999996       47.375                   7.05189492126797E18
35.73799999999999         8.4939                   47.315                   7.0227422164383437E18
-20.658                   -30.466999999999995      47.255                   7.0045893169304105E18
-5.3593                   36.496                   47.19499999999999        6.9865274843564646E18
28.664                    -23.339                  47.13499999999999        6.9593586487246623E18
-36.977                   -2.157                   47.074999999999996       6.9372771113919539E18
25.862                    26.623                   47.01499999999999        6.9089404710376069E18
-1.0884                   -37.175999999999995      46.95499999999999        6.8865701835612559E18
-24.359                   28.205                   46.894999999999996       6.8620571341986068E18
37.087999999999994        -4.352                   46.834999999999994       6.8406081611267922E18
-30.348                   -21.888                  46.77499999999999        6.8223177193215273E18
7.608199999999999         36.712                   46.714999999999996       6.7977893160789924E18
19.226999999999997        -32.274                  46.655                   6.7763915380181453E18
-36.049                   10.830999999999998       46.596                   6.7551681439700869E18
33.965                    16.396                   46.536                   6.7296451694006036E18
-13.996                   -35.102                  46.47599999999999        6.7114113794107464E18
-13.415999999999999       35.406                   46.41599999999999        6.6861086353436631E18
33.875                    -17.077999999999996      46.355999999999995       6.6672451797809121E18
-36.584                   -10.309                  46.29599999999999        6.6468452342439629E18
20.050999999999995        32.376                   46.23599999999999        6.621226841865728E18
7.098499999999999         -37.489                  46.175999999999995       6.6074274259800934E18
-30.614999999999995       22.891                   46.11599999999999        6.5858323793482803E18
38.11                     3.8082                   46.05599999999999        6.5657627622002708E18
-25.576                   -28.604                  45.995999999999995       6.544216631935146E18
-0.46359999999999996      38.44                    45.93599999999999        6.5244596337545728E18
26.357                    -28.084                  45.876                   6.4980268556784312E18
-38.47599999999999        2.9096                   45.816                   6.4818150097060352E18
30.391999999999996        23.888999999999996       45.757                   6.4569866751307264E18
-6.2853                   -38.214                  45.697                   6.4418574611486863E18
-21.217                   32.483                   45.63699999999999        6.4228462217891758E18
37.654999999999994        -9.6371                  45.57699999999999        6.4065902824706775E18
-34.337                   -18.363                  45.516999999999996       6.3857552824019896E18
12.939                    36.8                     45.456999999999994       6.3660130086501847E18
15.345                    -35.94                   45.39699999999999        6.3427525349047931E18
-35.655                   16.164                   45.336999999999996       6.3277492467981507E18
37.275                    12.188                   45.276999999999994       6.304212487179692E18
-19.286999999999995       -34.22599999999999       45.21699999999999        6.2860854204438118E18
-8.9133                   38.333                   45.157                   6.2666820725713275E18
32.52199999999999         -22.282999999999998      45.097                   6.2515188983675976E18
-39.101                   -5.5470999999999995      45.037                   6.2377123879634616E18
25.128                    30.555                   44.977                   6.2101175792471736E18
2.1147                    -39.572                  44.91799999999999        6.1959923997364767E18
-28.337999999999997       27.797999999999995       44.85799999999999        6.1759040944498442E18
39.741                    -1.3575999999999997      44.797999999999995       6.1599200138101801E18
-30.272                   -25.887                  44.73799999999999        6.1452104477133271E18
4.8431                    39.604                   44.67799999999999        6.1273056696877558E18
23.219999999999995        -32.529                  44.617999999999995       6.1082708565776835E18
-39.159                   8.3147                   44.55799999999999        6.0931462303890391E18
34.549                    20.355                   44.49799999999999        6.0728333623401503E18
-11.745                   -38.41                   44.437999999999995       6.061123704381525E18
-17.313                   36.316                   44.378                   6.0411218697658798E18
37.35799999999999         -15.108                  44.318                   6.0234761772602798E18
-37.814                   -14.117999999999999      44.258                   6.0064620142033848E18
18.376                    36.012                   44.198                   5.9920544724914872E18
10.792999999999997        -39.03                   44.138                   5.9705909761631334E18
-34.378                   21.522999999999996       44.078                   5.9551091343074253E18
39.95199999999999         7.363199999999999        44.01899999999999        5.9365819015247278E18
-24.524999999999995       -32.467999999999996      43.958999999999996       5.9234708045766953E18
-3.8543999999999996       40.572                   43.898999999999994       5.9088211355787971E18
30.296                    -27.356                  43.83899999999999        5.8900423561072343E18
-40.882                   -0.2936                  43.778999999999996       5.8778671572533484E18
29.994                    27.876                   43.718999999999994       5.8588283997879757E18
-3.2918999999999996       -40.87899999999999       43.659                   5.8439346260372408E18
-25.224999999999998       32.417                   43.599                   5.8248144103156163E18
40.56                     -6.8744                  43.539                   5.8112700080039086E18
-34.604                   -22.362999999999996      43.479                   5.7955574620210033E18
10.425999999999998        39.925999999999995       43.419                   5.7808333835366994E18
19.310999999999996        -36.538                  43.359                   5.762654920739881E18
-38.98                    13.919                   43.299                   5.7519894147289733E18
38.202                    16.091                   43.239                   5.7339056762429379E18
-17.326                   -37.72699999999999       43.17999999999999        5.7175168493182054E18
-12.727999999999998       39.582                   43.11999999999999        5.7037010512919798E18
36.176                    -20.619                  43.059999999999995       5.6864114159134157E18
-40.664                   -9.2464                  42.99999999999999        5.6722502727144571E18
23.772999999999996        34.337                   42.94                    5.6587565936036987E18
5.672699999999999         -41.437999999999995      42.88                    5.6474969465322783E18
-32.221                   26.762999999999998       42.82                    5.6285122965898711E18
41.898                    2.0341                   42.76                    5.6202104652847155E18
-29.563                   -29.844999999999995      42.7                     5.6039021918572001E18
1.6414                    42.037                   42.64                    5.5900495602402417E18
27.225                    -32.152                  42.58                    5.571129707297534E18
-41.853                   5.3255                   42.52                    5.5591911065369846E18
34.508                    24.379                   42.46                    5.540924630020823E18
-8.989799999999999        -41.345                  42.4                     5.5279972007343852E18
-21.329                   36.61099999999999        42.340999999999994       5.5164592852125798E18
40.515                    -12.606                  42.28099999999999        5.503901930476672E18
-38.443                   -18.098                  42.221                   5.4869193616911913E18
16.145                    39.368                   42.160999999999994       5.4752151161417769E18
14.709                    -39.989999999999995      42.101                   5.4593990872309658E18
-37.910999999999994       19.579                   42.041                   5.445933958918615E18
41.237                    11.186999999999998       41.981                   5.4312713434215291E18